 argument  1 = simplified_D18_DpiA.xyz.nwi
                                         
                                         


             Northwest Computational Chemistry Package (NWChem) 7.0.2
             --------------------------------------------------------


                    Environmental Molecular Sciences Laboratory
                       Pacific Northwest National Laboratory
                                Richland, WA 99352

                              Copyright (c) 1994-2020
                       Pacific Northwest National Laboratory
                            Battelle Memorial Institute

             NWChem is an open-source computational chemistry package
                        distributed under the terms of the
                      Educational Community License (ECL) 2.0
             A copy of the license is included with this distribution
                              in the LICENSE.TXT file

                                  ACKNOWLEDGMENT
                                  --------------

            This software and its documentation were developed at the
            EMSL at Pacific Northwest National Laboratory, a multiprogram
            national laboratory, operated for the U.S. Department of Energy
            by Battelle under Contract Number DE-AC05-76RL01830. Support
            for this work was provided by the Department of Energy Office
            of Biological and Environmental Research, Office of Basic
            Energy Sciences, and the Office of Advanced Scientific Computing.


           Job information
           ---------------

    hostname        = agls5
    program         = nwchem
    date            = Sat Mar 23 05:55:08 2024

    compiled        = Sat_Apr_09_17:12:10_2022
    source          = /build/nwchem-f1f4gx/nwchem-7.0.2/build-openmpi
    nwchem branch   = 7.0.2
    nwchem revision = N/A
    ga revision     = 5.8.1
    use scalapack   = T
    input           = simplified_D18_DpiA.xyz.nwi
    prefix          = simplified_D18_DpiA.xyz.
    data base       = /tmp/simplified_D18_DpiA.xyz.db
    status          = startup
    nproc           =        1
    time left       =     -1s



           Memory information
           ------------------

    heap     =   13107194 doubles =    100.0 Mbytes
    stack    =   13107199 doubles =    100.0 Mbytes
    global   =   26214400 doubles =    200.0 Mbytes (distinct from heap & stack)
    total    =   52428793 doubles =    400.0 Mbytes
    verify   = yes
    hardfail = no 


           Directory information
           ---------------------

  0 permanent = /tmp
  0 scratch   = /tmp




                                NWChem Input Module
                                -------------------


                              simplified_D18_DpiA.xyz
                              -----------------------

 Scaling coordinates for geometry "geometry" by  1.889725989
 (inverse scale =  0.529177249)



                             Geometry "geometry" -> ""
                             -------------------------

 Output coordinates in angstroms (scale by  1.889725989 to convert to a.u.)

  No.       Tag          Charge          X              Y              Z
 ---- ---------------- ---------- -------------- -------------- --------------
    1 C                    6.0000     9.59905277    10.69809070     9.37267920
    2 C                    6.0000     9.01554494    11.73439272    10.03190005
    3 H                    1.0000     7.95299736    11.95259432    10.11873557
    4 S                   16.0000    10.17138673    12.80349944    10.80919537
    5 C                    6.0000    11.51452133    11.81748168    10.22553472
    6 C                    6.0000    12.87025611    12.04094866    10.44962417
    7 C                    6.0000    13.79193614    11.13597138     9.89673580
    8 C                    6.0000    13.31246065    10.02848982     9.13122949
    9 C                    6.0000    11.95955525     9.80482743     8.90717084
   10 C                    6.0000    11.03765409    10.70981522     9.46005607
   11 S                   16.0000    14.64846695     9.03881414     8.54472143
   12 C                    6.0000    15.83612094    10.11069187     9.32564379
   13 C                    6.0000    15.22464678    11.14799284     9.98398846
   14 C                    6.0000    17.84180843     8.75341773     8.53089645
   15 C                    6.0000    19.25277978     8.74952768     8.60631933
   16 C                    6.0000    19.77496592     9.80303568     9.33816628
   17 S                   16.0000    18.47519443    10.82046533     9.94519893
   18 C                    6.0000    17.24454923     9.80717654     9.20100726
   19 C                    6.0000    23.50703858     9.90152260     9.61023224
   20 C                    6.0000    22.26604447     9.35922819     9.17977533
   21 C                    6.0000    21.17064130    10.08353657     9.60250983
   22 S                   16.0000    21.67520852    11.48325254    10.56436778
   23 C                    6.0000    23.36390245    11.06549616    10.37898323
   24 C                    6.0000    24.49346347    11.76118834    10.90564827
   25 S                   16.0000    24.48979013    13.21730676    11.87705159
   26 C                    6.0000    26.23729407    13.20482064    11.96533610
   27 H                    1.0000    26.74623795    13.99092516    12.51801784
   28 C                    6.0000    26.78853484    12.15215596    11.29341804
   29 C                    6.0000    25.80432976    11.31487986    10.68032444
   30 C                    6.0000    25.99234498    10.12107852     9.89414476
   31 N                    7.0000    27.16069336     9.56527795     9.58787533
   32 S                   16.0000    26.81309459     8.21829406     8.66987662
   33 N                    7.0000    25.14995274     8.32926638     8.65197200
   34 C                    6.0000    24.84088274     9.41222249     9.35749227
   35 H                    1.0000     9.03708727     9.93610502     8.83315968
   36 H                    1.0000    13.21532328    12.89293896    11.03720941
   37 O                    1.0000    11.61538767     8.95257738     8.31946156
   38 H                    1.0000    15.77792017    11.91511716    10.52646721
   39 H                    1.0000    17.26834551     7.99777740     7.99496737
   40 H                    1.0000    19.87524030     7.99090213     8.13452496
   41 H                    1.0000    22.20021069     8.45749547     8.57445480
   42 H                    1.0000    27.85808033    11.96190911    11.22561739

      Atomic Mass 
      ----------- 

      C                 12.000000
      H                  1.007825
      S                 31.972070
      N                 14.003070


 Effective nuclear repulsion energy (a.u.)    3593.8465382523

            Nuclear Dipole moment (a.u.) 
            ----------------------------
        X                 Y               Z
 ---------------- ---------------- ----------------
  9551.6834832117  5308.0970690223  4919.9035634506


            XYZ format geometry
            -------------------
    42
 geometry
 C                     9.59905277    10.69809070     9.37267920
 C                     9.01554494    11.73439272    10.03190005
 H                     7.95299736    11.95259432    10.11873557
 S                    10.17138673    12.80349944    10.80919537
 C                    11.51452133    11.81748168    10.22553472
 C                    12.87025611    12.04094866    10.44962417
 C                    13.79193614    11.13597138     9.89673580
 C                    13.31246065    10.02848982     9.13122949
 C                    11.95955525     9.80482743     8.90717084
 C                    11.03765409    10.70981522     9.46005607
 S                    14.64846695     9.03881414     8.54472143
 C                    15.83612094    10.11069187     9.32564379
 C                    15.22464678    11.14799284     9.98398846
 C                    17.84180843     8.75341773     8.53089645
 C                    19.25277978     8.74952768     8.60631933
 C                    19.77496592     9.80303568     9.33816628
 S                    18.47519443    10.82046533     9.94519893
 C                    17.24454923     9.80717654     9.20100726
 C                    23.50703858     9.90152260     9.61023224
 C                    22.26604447     9.35922819     9.17977533
 C                    21.17064130    10.08353657     9.60250983
 S                    21.67520852    11.48325254    10.56436778
 C                    23.36390245    11.06549616    10.37898323
 C                    24.49346347    11.76118834    10.90564827
 S                    24.48979013    13.21730676    11.87705159
 C                    26.23729407    13.20482064    11.96533610
 H                    26.74623795    13.99092516    12.51801784
 C                    26.78853484    12.15215596    11.29341804
 C                    25.80432976    11.31487986    10.68032444
 C                    25.99234498    10.12107852     9.89414476
 N                    27.16069336     9.56527795     9.58787533
 S                    26.81309459     8.21829406     8.66987662
 N                    25.14995274     8.32926638     8.65197200
 C                    24.84088274     9.41222249     9.35749227
 H                     9.03708727     9.93610502     8.83315968
 H                    13.21532328    12.89293896    11.03720941
 H                    11.61538767     8.95257738     8.31946156
 H                    15.77792017    11.91511716    10.52646721
 H                    17.26834551     7.99777740     7.99496737
 H                    19.87524030     7.99090213     8.13452496
 H                    22.20021069     8.45749547     8.57445480
 H                    27.85808033    11.96190911    11.22561739

 ==============================================================================
                                internuclear distances
 ------------------------------------------------------------------------------
       center one      |      center two      | atomic units |  angstroms
 ------------------------------------------------------------------------------
    2 C                |   1 C                |     2.56959  |     1.35977
    3 H                |   2 C                |     2.05638  |     1.08819
    4 S                |   2 C                |     3.31815  |     1.75589
    5 C                |   4 S                |     3.33626  |     1.76547
    6 C                |   5 C                |     2.63084  |     1.39218
    7 C                |   6 C                |     2.65516  |     1.40505
    8 C                |   7 C                |     2.70066  |     1.42913
    9 C                |   8 C                |     2.62569  |     1.38945
   10 C                |   1 C                |     2.72366  |     1.44130
   10 C                |   5 C                |     2.69926  |     1.42839
   10 C                |   9 C                |     2.65544  |     1.40520
   11 S                |   8 C                |     3.33169  |     1.76305
   12 C                |  11 S                |     3.36418  |     1.78025
   13 C                |   7 C                |     2.71254  |     1.43542
   13 C                |  12 C                |     2.59334  |     1.37234
   15 C                |  14 C                |     2.67017  |     1.41299
   16 C                |  15 C                |     2.61722  |     1.38498
   17 S                |  16 C                |     3.32348  |     1.75871
   18 C                |  12 C                |     2.73281  |     1.44614
   18 C                |  14 C                |     2.61587  |     1.38426
   18 C                |  17 S                |     3.32456  |     1.75928
   20 C                |  19 C                |     2.68543  |     1.42107
   21 C                |  16 C                |     2.73617  |     1.44792
   21 C                |  20 C                |     2.60702  |     1.37958
   22 S                |  21 C                |     3.34805  |     1.77171
   23 C                |  19 C                |     2.64987  |     1.40225
   23 C                |  22 S                |     3.30598  |     1.74945
   24 C                |  23 C                |     2.69726  |     1.42733
   25 S                |  24 C                |     3.30779  |     1.75041
   26 C                |  25 S                |     3.30660  |     1.74978
   27 H                |  26 C                |     2.05489  |     1.08740
   28 C                |  26 C                |     2.57963  |     1.36508
   29 C                |  24 C                |     2.65123  |     1.40297
   29 C                |  28 C                |     2.70275  |     1.43024
   30 C                |  29 C                |     2.72448  |     1.44173
   31 N                |  30 C                |     2.51252  |     1.32957
   32 S                |  31 N                |     3.14962  |     1.66671
   33 N                |  32 S                |     3.15005  |     1.66694
   34 C                |  19 C                |     2.72699  |     1.44306
   34 C                |  30 C                |     2.74911  |     1.45476
   34 C                |  33 N                |     2.51133  |     1.32894
   35 H                |   1 C                |     2.05929  |     1.08973
   36 H                |   6 C                |     2.06163  |     1.09097
   37 H                |   9 C                |     2.06161  |     1.09096
   38 H                |  13 C                |     2.06047  |     1.09036
   39 H                |  14 C                |     2.05891  |     1.08953
   40 H                |  15 C                |     2.05760  |     1.08883
   41 H                |  20 C                |     2.05613  |     1.08806
   42 H                |  28 C                |     2.05687  |     1.08845
 ------------------------------------------------------------------------------
                         number of included internuclear distances:         49
 ==============================================================================



 ==============================================================================
                                 internuclear angles
 ------------------------------------------------------------------------------
        center 1       |       center 2       |       center 3       |  degrees
 ------------------------------------------------------------------------------
    2 C                |   1 C                |  10 C                |   113.12
    2 C                |   1 C                |  35 H                |   123.48
   10 C                |   1 C                |  35 H                |   123.40
    1 C                |   2 C                |   3 H                |   127.63
    1 C                |   2 C                |   4 S                |   113.34
    3 H                |   2 C                |   4 S                |   119.03
    2 C                |   4 S                |   5 C                |    90.82
    4 S                |   5 C                |   6 C                |   126.73
    4 S                |   5 C                |  10 C                |   110.87
    6 C                |   5 C                |  10 C                |   122.40
    5 C                |   6 C                |   7 C                |   118.17
    5 C                |   6 C                |  36 H                |   121.34
    7 C                |   6 C                |  36 H                |   120.49
    6 C                |   7 C                |   8 C                |   119.33
    6 C                |   7 C                |  13 C                |   128.71
    8 C                |   7 C                |  13 C                |   111.96
    7 C                |   8 C                |   9 C                |   122.53
    7 C                |   8 C                |  11 S                |   111.04
    9 C                |   8 C                |  11 S                |   126.43
    8 C                |   9 C                |  10 C                |   118.14
    8 C                |   9 C                |  37 H                |   121.32
   10 C                |   9 C                |  37 H                |   120.54
    1 C                |  10 C                |   5 C                |   111.84
    1 C                |  10 C                |   9 C                |   128.74
    5 C                |  10 C                |   9 C                |   119.42
    8 C                |  11 S                |  12 C                |    91.24
   11 S                |  12 C                |  13 C                |   111.61
   11 S                |  12 C                |  18 C                |   119.05
   13 C                |  12 C                |  18 C                |   129.34
    7 C                |  13 C                |  12 C                |   114.16
    7 C                |  13 C                |  38 H                |   122.86
   12 C                |  13 C                |  38 H                |   122.98
   15 C                |  14 C                |  18 C                |   114.02
   15 C                |  14 C                |  39 H                |   123.36
   18 C                |  14 C                |  39 H                |   122.61
   14 C                |  15 C                |  16 C                |   113.74
   14 C                |  15 C                |  40 H                |   123.34
   16 C                |  15 C                |  40 H                |   122.92
   15 C                |  16 C                |  17 S                |   110.11
   15 C                |  16 C                |  21 C                |   127.39
   17 S                |  16 C                |  21 C                |   122.50
   16 C                |  17 S                |  18 C                |    92.16
   12 C                |  18 C                |  14 C                |   128.44
   12 C                |  18 C                |  17 S                |   121.60
   14 C                |  18 C                |  17 S                |   109.96
   20 C                |  19 C                |  23 C                |   113.18
   20 C                |  19 C                |  34 C                |   128.66
   23 C                |  19 C                |  34 C                |   118.15
   19 C                |  20 C                |  21 C                |   113.59
   19 C                |  20 C                |  41 H                |   122.52
   21 C                |  20 C                |  41 H                |   123.89
   16 C                |  21 C                |  20 C                |   127.42
   16 C                |  21 C                |  22 S                |   121.78
   20 C                |  21 C                |  22 S                |   110.79
   21 C                |  22 S                |  23 C                |    91.65
   19 C                |  23 C                |  22 S                |   110.78
   19 C                |  23 C                |  24 C                |   121.74
   22 S                |  23 C                |  24 C                |   127.47
   23 C                |  24 C                |  25 S                |   127.49
   23 C                |  24 C                |  29 C                |   121.68
   25 S                |  24 C                |  29 C                |   110.84
   24 C                |  25 S                |  26 C                |    91.14
   25 S                |  26 C                |  27 H                |   119.20
   25 S                |  26 C                |  28 C                |   112.58
   27 H                |  26 C                |  28 C                |   128.22
   26 C                |  28 C                |  29 C                |   112.62
   26 C                |  28 C                |  42 H                |   124.21
   29 C                |  28 C                |  42 H                |   123.17
   24 C                |  29 C                |  28 C                |   112.82
   24 C                |  29 C                |  30 C                |   118.22
   28 C                |  29 C                |  30 C                |   128.96
   29 C                |  30 C                |  31 N                |   125.90
   29 C                |  30 C                |  34 C                |   120.09
   31 N                |  30 C                |  34 C                |   114.01
   30 C                |  31 N                |  32 S                |   106.35
   31 N                |  32 S                |  33 N                |    99.22
   32 S                |  33 N                |  34 C                |   106.30
   19 C                |  34 C                |  30 C                |   120.12
   19 C                |  34 C                |  33 N                |   125.75
   30 C                |  34 C                |  33 N                |   114.13
 ------------------------------------------------------------------------------
                            number of included internuclear angles:         80
 ==============================================================================



                                      molopt
                                      ------

                                 NWChem DFT Module
                                 -----------------


                                      molopt




 Summary of "ao basis" -> "ao basis" (cartesian)
 ------------------------------------------------------------------------------
       Tag                 Description            Shells   Functions and Types
 ---------------- ------------------------------  ------  ---------------------
 C                          cc-pVDZ                  6       15   3s2p1d
 H                          cc-pVDZ                  3        5   2s1p
 S                          cc-pVDZ                  8       19   4s3p1d
 N                          cc-pVDZ                  6       15   3s2p1d


  Caching 1-el integrals 

            General Information
            -------------------
          SCF calculation type: DFT
          Wavefunction type:  closed shell.
          No. of atoms     :    42
          No. of electrons :   264
           Alpha electrons :   132
            Beta electrons :   132
          Charge           :     0
          Spin multiplicity:     1
          Use of symmetry is: off; symmetry adaption is: off
          Maximum number of iterations: 250
          This is a Direct SCF calculation.
          AO basis - number of functions:   554
                     number of shells:   234
          Convergence on energy requested:  1.00D-06
          Convergence on density requested:  1.00D-05
          Convergence on gradient requested:  5.00D-04

              XC Information
              --------------
                         B3LYP Method XC Potential
                     Hartree-Fock (Exact) Exchange  0.200          
                        Slater Exchange Functional  0.800 local    
                    Becke 1988 Exchange Functional  0.720 non-local
              Lee-Yang-Parr Correlation Functional  0.810          
                  VWN I RPA Correlation Functional  0.190 local    

             Grid Information
             ----------------
          Grid used for XC integration:  medium    
          Radial quadrature: Mura-Knowles        
          Angular quadrature: Lebedev. 
          Tag              B.-S. Rad. Rad. Pts. Rad. Cut. Ang. Pts.
          ---              ---------- --------- --------- ---------
          C                   0.70       49          16.0       434
          H                   0.35       45          15.0       434
          S                   1.00       88          16.0       590
          N                   0.65       49          13.0       434
          Grid pruning is: on 
          Number of quadrature shells:  2252
          Spatial weights used:  Erf1

          Convergence Information
          -----------------------
          Convergence aids based upon iterative change in 
          total energy or number of iterations. 
          Levelshifting, if invoked, occurs when the 
          HOMO/LUMO gap drops below (HL_TOL):  1.00D-02
          DIIS, if invoked, will attempt to extrapolate 
          using up to (NFOCK): 10 stored Fock matrices.

                    Damping(40%)  Levelshifting(0.5)       DIIS
                  --------------- ------------------- ---------------
          dE  on:    0.10+100         ASAP                start   
          dE off:    0.10D-02       250 iters           250 iters 


      Screening Tolerance Information
      -------------------------------
          Density screening/tol_rho:  1.00D-10
          AO Gaussian exp screening on grid/accAOfunc:  14
          CD Gaussian exp screening on grid/accCDfunc:  20
          XC Gaussian exp screening on grid/accXCfunc:  20
          Schwarz screening/accCoul:  1.00D-08


      Superposition of Atomic Density Guess
      -------------------------------------

 Sum of atomic energies:       -3402.44577393

      Non-variational initial energy
      ------------------------------

 Total energy =   -3423.653729
 1-e energy   =  -11832.499048
 2-e energy   =    4814.998781
 HOMO         =      -0.174512
 LUMO         =      -0.072953

   Time after variat. SCF:     49.4
   Time prior to 1st pass:     49.4

           Memory utilization after 1st SCF pass: 
           Heap Space remaining (MW):       13.06            13057810
          Stack Space remaining (MW):       13.10            13102324

   convergence    iter        energy       DeltaE   RMS-Dens  Diis-err    time
 ---------------- ----- ----------------- --------- --------- ---------  ------
 d=40,ls=0.0,diis     1  -3419.0354994160 -7.01D+03  5.59D-03  3.83D+00   201.8
 d=40,ls=0.0,diis     2  -3419.2198068110 -1.84D-01  2.75D-03  7.45D-01   354.2
 d=40,ls=0.0,diis     3  -3419.2963667484 -7.66D-02  1.29D-03  3.08D-01   507.6
 d=40,ls=0.0,diis     4  -3419.3772790398 -8.09D-02  4.14D-04  4.03D-02   661.3
 d=40,ls=0.0,diis     5  -3419.4059488978 -2.87D-02  1.81D-04  6.42D-03   815.1
  Resetting Diis
 d=40,ls=0.0,diis     6  -3419.4172783742 -1.13D-02  1.69D-04  1.01D-03   998.8
 d=40,ls=0.0,diis     7  -3419.4217572025 -4.48D-03  1.25D-04  1.53D-04  1182.4
 d=40,ls=0.0,diis     8  -3419.4235294736 -1.77D-03  5.07D-05  5.77D-05  1366.0
 d= 0,ls=0.0,diis     9  -3419.4242471314 -7.18D-04  2.16D-05  4.33D-06  1549.6
 d= 0,ls=0.0,diis    10  -3419.4247230197 -4.76D-04  5.63D-06  1.22D-05  1733.4
 d= 0,ls=0.0,diis    11  -3419.4247245769 -1.56D-06  1.58D-06  4.42D-07  1917.2
 d= 0,ls=0.0,diis    12  -3419.4247246148 -3.80D-08  6.77D-07  1.50D-07  2100.6


         Total DFT energy =    -3419.424724614816
      One electron energy =   -11848.094435731356
           Coulomb energy =     5136.816589879202
    Exchange-Corr. energy =     -301.993417014976
 Nuclear repulsion energy =     3593.846538252315

 Numeric. integr. density =      263.999977215856

     Total iterative time =   2051.3s



                       DFT Final Molecular Orbital Analysis
                       ------------------------------------

 Vector    1  Occ=2.000000D+00  E=-8.897334D+01
              MO Center=  2.7D+01,  8.2D+00,  8.7D+00, r^2= 3.6D-03
   Bfn.  Coefficient  Atom+Function         Bfn.  Coefficient  Atom+Function  
  ----- ------------  ---------------      ----- ------------  ---------------
   466      1.000026  32 S  s         

 Vector    2  Occ=2.000000D+00  E=-8.893580D+01
              MO Center=  2.2D+01,  1.1D+01,  1.1D+01, r^2= 3.6D-03
   Bfn.  Coefficient  Atom+Function         Bfn.  Coefficient  Atom+Function  
  ----- ------------  ---------------      ----- ------------  ---------------
   318      1.000062  22 S  s         

 Vector    3  Occ=2.000000D+00  E=-8.893447D+01
              MO Center=  2.4D+01,  1.3D+01,  1.2D+01, r^2= 3.6D-03
   Bfn.  Coefficient  Atom+Function         Bfn.  Coefficient  Atom+Function  
  ----- ------------  ---------------      ----- ------------  ---------------
   367      1.000055  25 S  s         

 Vector    4  Occ=2.000000D+00  E=-8.893132D+01
              MO Center=  1.8D+01,  1.1D+01,  9.9D+00, r^2= 3.6D-03
   Bfn.  Coefficient  Atom+Function         Bfn.  Coefficient  Atom+Function  
  ----- ------------  ---------------      ----- ------------  ---------------
   239      1.000061  17 S  s         

 Vector    5  Occ=2.000000D+00  E=-8.891866D+01
              MO Center=  1.5D+01,  9.0D+00,  8.5D+00, r^2= 3.6D-03
   Bfn.  Coefficient  Atom+Function         Bfn.  Coefficient  Atom+Function  
  ----- ------------  ---------------      ----- ------------  ---------------
   145      1.000061  11 S  s         

 Vector    6  Occ=2.000000D+00  E=-8.891755D+01
              MO Center=  1.0D+01,  1.3D+01,  1.1D+01, r^2= 3.6D-03
   Bfn.  Coefficient  Atom+Function         Bfn.  Coefficient  Atom+Function  
  ----- ------------  ---------------      ----- ------------  ---------------
    36      1.000053   4 S  s         

 Vector    7  Occ=2.000000D+00  E=-1.437094D+01
              MO Center=  2.5D+01,  8.3D+00,  8.7D+00, r^2= 2.0D-02
   Bfn.  Coefficient  Atom+Function         Bfn.  Coefficient  Atom+Function  
  ----- ------------  ---------------      ----- ------------  ---------------
   485      1.003493  33 N  s         

 Vector    8  Occ=2.000000D+00  E=-1.437031D+01
              MO Center=  2.7D+01,  9.6D+00,  9.6D+00, r^2= 2.0D-02
   Bfn.  Coefficient  Atom+Function         Bfn.  Coefficient  Atom+Function  
  ----- ------------  ---------------      ----- ------------  ---------------
   451      1.003490  31 N  s         

 Vector    9  Occ=2.000000D+00  E=-1.025268D+01
              MO Center=  2.1D+01,  1.0D+01,  9.6D+00, r^2= 3.3D-02
   Bfn.  Coefficient  Atom+Function         Bfn.  Coefficient  Atom+Function  
  ----- ------------  ---------------      ----- ------------  ---------------
   303      1.002684  21 C  s               224      0.048679  16 C  s         

 Vector   10  Occ=2.000000D+00  E=-1.025233D+01
              MO Center=  2.5D+01,  9.6D+00,  9.5D+00, r^2= 4.9D-01
   Bfn.  Coefficient  Atom+Function         Bfn.  Coefficient  Atom+Function  
  ----- ------------  ---------------      ----- ------------  ---------------
   500      0.823860  34 C  s               436      0.573965  30 C  s         

 Vector   11  Occ=2.000000D+00  E=-1.025193D+01
              MO Center=  2.6D+01,  9.9D+00,  9.7D+00, r^2= 4.9D-01
   Bfn.  Coefficient  Atom+Function         Bfn.  Coefficient  Atom+Function  
  ----- ------------  ---------------      ----- ------------  ---------------
   436      0.823683  30 C  s               500     -0.573734  34 C  s         

 Vector   12  Occ=2.000000D+00  E=-1.025163D+01
              MO Center=  2.3D+01,  1.1D+01,  1.0D+01, r^2= 8.0D-02
   Bfn.  Coefficient  Atom+Function         Bfn.  Coefficient  Atom+Function  
  ----- ------------  ---------------      ----- ------------  ---------------
   337      0.990673  23 C  s               352      0.162750  24 C  s         

 Vector   13  Occ=2.000000D+00  E=-1.025023D+01
              MO Center=  2.4D+01,  1.2D+01,  1.1D+01, r^2= 8.0D-02
   Bfn.  Coefficient  Atom+Function         Bfn.  Coefficient  Atom+Function  
  ----- ------------  ---------------      ----- ------------  ---------------
   352      0.990668  24 C  s               337     -0.162530  23 C  s         

 Vector   14  Occ=2.000000D+00  E=-1.024872D+01
              MO Center=  2.0D+01,  9.8D+00,  9.3D+00, r^2= 3.3D-02
   Bfn.  Coefficient  Atom+Function         Bfn.  Coefficient  Atom+Function  
  ----- ------------  ---------------      ----- ------------  ---------------
   224      1.002675  16 C  s               303     -0.048378  21 C  s         

 Vector   15  Occ=2.000000D+00  E=-1.024691D+01
              MO Center=  1.6D+01,  1.0D+01,  9.3D+00, r^2= 3.8D-01
   Bfn.  Coefficient  Atom+Function         Bfn.  Coefficient  Atom+Function  
  ----- ------------  ---------------      ----- ------------  ---------------
   164      0.889519  12 C  s               258      0.465542  18 C  s         

 Vector   16  Occ=2.000000D+00  E=-1.024644D+01
              MO Center=  1.7D+01,  9.9D+00,  9.2D+00, r^2= 3.8D-01
   Bfn.  Coefficient  Atom+Function         Bfn.  Coefficient  Atom+Function  
  ----- ------------  ---------------      ----- ------------  ---------------
   258      0.889360  18 C  s               164     -0.465261  12 C  s         

 Vector   17  Occ=2.000000D+00  E=-1.023598D+01
              MO Center=  2.6D+01,  1.3D+01,  1.2D+01, r^2= 2.8D-02
   Bfn.  Coefficient  Atom+Function         Bfn.  Coefficient  Atom+Function  
  ----- ------------  ---------------      ----- ------------  ---------------
   386      1.003651  26 C  s         

 Vector   18  Occ=2.000000D+00  E=-1.023438D+01
              MO Center=  1.3D+01,  1.0D+01,  9.1D+00, r^2= 2.8D-02
   Bfn.  Coefficient  Atom+Function         Bfn.  Coefficient  Atom+Function  
  ----- ------------  ---------------      ----- ------------  ---------------
   100      1.003757   8 C  s         

 Vector   19  Occ=2.000000D+00  E=-1.023255D+01
              MO Center=  1.2D+01,  1.2D+01,  1.0D+01, r^2= 2.8D-02
   Bfn.  Coefficient  Atom+Function         Bfn.  Coefficient  Atom+Function  
  ----- ------------  ---------------      ----- ------------  ---------------
    55      1.003738   5 C  s         

 Vector   20  Occ=2.000000D+00  E=-1.022975D+01
              MO Center=  9.0D+00,  1.2D+01,  1.0D+01, r^2= 2.8D-02
   Bfn.  Coefficient  Atom+Function         Bfn.  Coefficient  Atom+Function  
  ----- ------------  ---------------      ----- ------------  ---------------
    16      1.003652   2 C  s         

 Vector   21  Occ=2.000000D+00  E=-1.022425D+01
              MO Center=  2.4D+01,  9.9D+00,  9.6D+00, r^2= 2.9D-02
   Bfn.  Coefficient  Atom+Function         Bfn.  Coefficient  Atom+Function  
  ----- ------------  ---------------      ----- ------------  ---------------
   273      1.003676  19 C  s         

 Vector   22  Occ=2.000000D+00  E=-1.022232D+01
              MO Center=  2.6D+01,  1.1D+01,  1.1D+01, r^2= 2.9D-02
   Bfn.  Coefficient  Atom+Function         Bfn.  Coefficient  Atom+Function  
  ----- ------------  ---------------      ----- ------------  ---------------
   421      1.003657  29 C  s         

 Vector   23  Occ=2.000000D+00  E=-1.021575D+01
              MO Center=  1.4D+01,  1.1D+01,  9.9D+00, r^2= 3.5D-02
   Bfn.  Coefficient  Atom+Function         Bfn.  Coefficient  Atom+Function  
  ----- ------------  ---------------      ----- ------------  ---------------
    85      1.002065   7 C  s                70      0.053899   6 C  s         
   179      0.027637  13 C  s         

 Vector   24  Occ=2.000000D+00  E=-1.021380D+01
              MO Center=  1.1D+01,  1.1D+01,  9.5D+00, r^2= 4.1D-02
   Bfn.  Coefficient  Atom+Function         Bfn.  Coefficient  Atom+Function  
  ----- ------------  ---------------      ----- ------------  ---------------
   130      1.000618  10 C  s               115      0.077702   9 C  s         

 Vector   25  Occ=2.000000D+00  E=-1.021364D+01
              MO Center=  2.2D+01,  9.4D+00,  9.2D+00, r^2= 2.9D-02
   Bfn.  Coefficient  Atom+Function         Bfn.  Coefficient  Atom+Function  
  ----- ------------  ---------------      ----- ------------  ---------------
   288      1.003684  20 C  s         

 Vector   26  Occ=2.000000D+00  E=-1.021258D+01
              MO Center=  2.7D+01,  1.2D+01,  1.1D+01, r^2= 2.9D-02
   Bfn.  Coefficient  Atom+Function         Bfn.  Coefficient  Atom+Function  
  ----- ------------  ---------------      ----- ------------  ---------------
   406      1.003476  28 C  s         

 Vector   27  Occ=2.000000D+00  E=-1.021245D+01
              MO Center=  1.9D+01,  8.8D+00,  8.6D+00, r^2= 5.2D-01
   Bfn.  Coefficient  Atom+Function         Bfn.  Coefficient  Atom+Function  
  ----- ------------  ---------------      ----- ------------  ---------------
   209      0.734244  15 C  s               194      0.684783  14 C  s         

 Vector   28  Occ=2.000000D+00  E=-1.021194D+01
              MO Center=  1.8D+01,  8.8D+00,  8.6D+00, r^2= 5.2D-01
   Bfn.  Coefficient  Atom+Function         Bfn.  Coefficient  Atom+Function  
  ----- ------------  ---------------      ----- ------------  ---------------
   194      0.733987  14 C  s               209     -0.684533  15 C  s         

 Vector   29  Occ=2.000000D+00  E=-1.021080D+01
              MO Center=  1.3D+01,  1.2D+01,  1.0D+01, r^2= 3.4D-02
   Bfn.  Coefficient  Atom+Function         Bfn.  Coefficient  Atom+Function  
  ----- ------------  ---------------      ----- ------------  ---------------
    70      1.002435   6 C  s                85     -0.053363   7 C  s         

 Vector   30  Occ=2.000000D+00  E=-1.021037D+01
              MO Center=  1.2D+01,  9.8D+00,  8.9D+00, r^2= 4.0D-02
   Bfn.  Coefficient  Atom+Function         Bfn.  Coefficient  Atom+Function  
  ----- ------------  ---------------      ----- ------------  ---------------
   115      1.000892   9 C  s               130     -0.077241  10 C  s         

 Vector   31  Occ=2.000000D+00  E=-1.020798D+01
              MO Center=  1.5D+01,  1.1D+01,  1.0D+01, r^2= 3.0D-02
   Bfn.  Coefficient  Atom+Function         Bfn.  Coefficient  Atom+Function  
  ----- ------------  ---------------      ----- ------------  ---------------
   179      1.003531  13 C  s                85     -0.027485   7 C  s         

 Vector   32  Occ=2.000000D+00  E=-1.020461D+01
              MO Center=  9.6D+00,  1.1D+01,  9.4D+00, r^2= 2.9D-02
   Bfn.  Coefficient  Atom+Function         Bfn.  Coefficient  Atom+Function  
  ----- ------------  ---------------      ----- ------------  ---------------
     1      1.003494   1 C  s         

 Vector   33  Occ=2.000000D+00  E=-8.024213D+00
              MO Center=  2.7D+01,  8.2D+00,  8.7D+00, r^2= 7.7D-02
   Bfn.  Coefficient  Atom+Function         Bfn.  Coefficient  Atom+Function  
  ----- ------------  ---------------      ----- ------------  ---------------
   467      1.011922  32 S  s               468      0.028068  32 S  s         

 Vector   34  Occ=2.000000D+00  E=-7.990697D+00
              MO Center=  2.2D+01,  1.1D+01,  1.1D+01, r^2= 7.7D-02
   Bfn.  Coefficient  Atom+Function         Bfn.  Coefficient  Atom+Function  
  ----- ------------  ---------------      ----- ------------  ---------------
   319      1.011129  22 S  s               320      0.027578  22 S  s         

 Vector   35  Occ=2.000000D+00  E=-7.989262D+00
              MO Center=  2.4D+01,  1.3D+01,  1.2D+01, r^2= 7.7D-02
   Bfn.  Coefficient  Atom+Function         Bfn.  Coefficient  Atom+Function  
  ----- ------------  ---------------      ----- ------------  ---------------
   368      1.011324  25 S  s               369      0.027768  25 S  s         

 Vector   36  Occ=2.000000D+00  E=-7.986409D+00
              MO Center=  1.8D+01,  1.1D+01,  9.9D+00, r^2= 7.7D-02
   Bfn.  Coefficient  Atom+Function         Bfn.  Coefficient  Atom+Function  
  ----- ------------  ---------------      ----- ------------  ---------------
   240      1.011186  17 S  s               241      0.027649  17 S  s         

 Vector   37  Occ=2.000000D+00  E=-7.973840D+00
              MO Center=  1.5D+01,  9.0D+00,  8.5D+00, r^2= 7.7D-02
   Bfn.  Coefficient  Atom+Function         Bfn.  Coefficient  Atom+Function  
  ----- ------------  ---------------      ----- ------------  ---------------
   146      1.011142  11 S  s               147      0.027608  11 S  s         

 Vector   38  Occ=2.000000D+00  E=-7.972572D+00
              MO Center=  1.0D+01,  1.3D+01,  1.1D+01, r^2= 7.7D-02
   Bfn.  Coefficient  Atom+Function         Bfn.  Coefficient  Atom+Function  
  ----- ------------  ---------------      ----- ------------  ---------------
    37      1.011341   4 S  s                38      0.027793   4 S  s         

 Vector   39  Occ=2.000000D+00  E=-5.989452D+00
              MO Center=  2.7D+01,  8.2D+00,  8.7D+00, r^2= 6.9D-02
   Bfn.  Coefficient  Atom+Function         Bfn.  Coefficient  Atom+Function  
  ----- ------------  ---------------      ----- ------------  ---------------
   470      0.794034  32 S  px              471      0.486319  32 S  py        
   472      0.368398  32 S  pz        

 Vector   40  Occ=2.000000D+00  E=-5.983643D+00
              MO Center=  2.7D+01,  8.2D+00,  8.7D+00, r^2= 6.9D-02
   Bfn.  Coefficient  Atom+Function         Bfn.  Coefficient  Atom+Function  
  ----- ------------  ---------------      ----- ------------  ---------------
   471      0.676543  32 S  py              470     -0.608199  32 S  px        
   472      0.417799  32 S  pz        

 Vector   41  Occ=2.000000D+00  E=-5.980405D+00
              MO Center=  2.7D+01,  8.2D+00,  8.7D+00, r^2= 6.8D-02
   Bfn.  Coefficient  Atom+Function         Bfn.  Coefficient  Atom+Function  
  ----- ------------  ---------------      ----- ------------  ---------------
   472      0.831646  32 S  pz              471     -0.554918  32 S  py        
   470     -0.045979  32 S  px        

 Vector   42  Occ=2.000000D+00  E=-5.954669D+00
              MO Center=  2.2D+01,  1.1D+01,  1.1D+01, r^2= 6.9D-02
   Bfn.  Coefficient  Atom+Function         Bfn.  Coefficient  Atom+Function  
  ----- ------------  ---------------      ----- ------------  ---------------
   322      0.880986  22 S  px              323      0.372101  22 S  py        
   324      0.296990  22 S  pz        

 Vector   43  Occ=2.000000D+00  E=-5.953140D+00
              MO Center=  2.4D+01,  1.3D+01,  1.2D+01, r^2= 6.9D-02
   Bfn.  Coefficient  Atom+Function         Bfn.  Coefficient  Atom+Function  
  ----- ------------  ---------------      ----- ------------  ---------------
   371      0.651890  25 S  px              372      0.615146  25 S  py        
   373      0.446501  25 S  pz        

 Vector   44  Occ=2.000000D+00  E=-5.950941D+00
              MO Center=  2.2D+01,  1.1D+01,  1.1D+01, r^2= 6.9D-02
   Bfn.  Coefficient  Atom+Function         Bfn.  Coefficient  Atom+Function  
  ----- ------------  ---------------      ----- ------------  ---------------
   323      0.745566  22 S  py              322     -0.473876  22 S  px        
   324      0.471280  22 S  pz        

 Vector   45  Occ=2.000000D+00  E=-5.950287D+00
              MO Center=  1.8D+01,  1.1D+01,  9.9D+00, r^2= 6.9D-02
   Bfn.  Coefficient  Atom+Function         Bfn.  Coefficient  Atom+Function  
  ----- ------------  ---------------      ----- ------------  ---------------
   243      1.000163  17 S  px              245      0.048716  17 S  pz        

 Vector   46  Occ=2.000000D+00  E=-5.949340D+00
              MO Center=  2.4D+01,  1.3D+01,  1.2D+01, r^2= 6.9D-02
   Bfn.  Coefficient  Atom+Function         Bfn.  Coefficient  Atom+Function  
  ----- ------------  ---------------      ----- ------------  ---------------
   371      0.758524  25 S  px              372     -0.562186  25 S  py        
   373     -0.333188  25 S  pz        

 Vector   47  Occ=2.000000D+00  E=-5.946736D+00
              MO Center=  2.2D+01,  1.1D+01,  1.1D+01, r^2= 6.8D-02
   Bfn.  Coefficient  Atom+Function         Bfn.  Coefficient  Atom+Function  
  ----- ------------  ---------------      ----- ------------  ---------------
   324      0.831680  22 S  pz              323     -0.554939  22 S  py        
   322     -0.045980  22 S  px        

 Vector   48  Occ=2.000000D+00  E=-5.946575D+00
              MO Center=  1.8D+01,  1.1D+01,  9.9D+00, r^2= 6.9D-02
   Bfn.  Coefficient  Atom+Function         Bfn.  Coefficient  Atom+Function  
  ----- ------------  ---------------      ----- ------------  ---------------
   244      0.833153  17 S  py              245      0.554904  17 S  pz        

 Vector   49  Occ=2.000000D+00  E=-5.945609D+00
              MO Center=  2.4D+01,  1.3D+01,  1.2D+01, r^2= 6.8D-02
   Bfn.  Coefficient  Atom+Function         Bfn.  Coefficient  Atom+Function  
  ----- ------------  ---------------      ----- ------------  ---------------
   373      0.831677  25 S  pz              372     -0.554944  25 S  py        
   371     -0.045979  25 S  px        

 Vector   50  Occ=2.000000D+00  E=-5.942605D+00
              MO Center=  1.8D+01,  1.1D+01,  9.9D+00, r^2= 6.8D-02
   Bfn.  Coefficient  Atom+Function         Bfn.  Coefficient  Atom+Function  
  ----- ------------  ---------------      ----- ------------  ---------------
   245      0.831673  17 S  pz              244     -0.554956  17 S  py        
   243     -0.045988  17 S  px        

 Vector   51  Occ=2.000000D+00  E=-5.937991D+00
              MO Center=  1.5D+01,  9.0D+00,  8.5D+00, r^2= 6.9D-02
   Bfn.  Coefficient  Atom+Function         Bfn.  Coefficient  Atom+Function  
  ----- ------------  ---------------      ----- ------------  ---------------
   149      0.996095  11 S  px              151      0.089153  11 S  pz        
   150      0.051054  11 S  py        

 Vector   52  Occ=2.000000D+00  E=-5.936574D+00
              MO Center=  1.0D+01,  1.3D+01,  1.1D+01, r^2= 6.9D-02
   Bfn.  Coefficient  Atom+Function         Bfn.  Coefficient  Atom+Function  
  ----- ------------  ---------------      ----- ------------  ---------------
    40      0.999055   4 S  px               42      0.065699   4 S  pz        

 Vector   53  Occ=2.000000D+00  E=-5.934345D+00
              MO Center=  1.5D+01,  9.0D+00,  8.5D+00, r^2= 6.9D-02
   Bfn.  Coefficient  Atom+Function         Bfn.  Coefficient  Atom+Function  
  ----- ------------  ---------------      ----- ------------  ---------------
   150      0.831664  11 S  py              151      0.549873  11 S  pz        
   149     -0.091921  11 S  px        

 Vector   54  Occ=2.000000D+00  E=-5.932909D+00
              MO Center=  1.0D+01,  1.3D+01,  1.1D+01, r^2= 6.9D-02
   Bfn.  Coefficient  Atom+Function         Bfn.  Coefficient  Atom+Function  
  ----- ------------  ---------------      ----- ------------  ---------------
    41      0.833046   4 S  py               42      0.553125   4 S  pz        
    40     -0.049530   4 S  px        

 Vector   55  Occ=2.000000D+00  E=-5.929382D+00
              MO Center=  1.5D+01,  9.0D+00,  8.5D+00, r^2= 6.8D-02
   Bfn.  Coefficient  Atom+Function         Bfn.  Coefficient  Atom+Function  
  ----- ------------  ---------------      ----- ------------  ---------------
   151      0.831663  11 S  pz              150     -0.554956  11 S  py        
   149     -0.045992  11 S  px        

 Vector   56  Occ=2.000000D+00  E=-5.928486D+00
              MO Center=  1.0D+01,  1.3D+01,  1.1D+01, r^2= 6.8D-02
   Bfn.  Coefficient  Atom+Function         Bfn.  Coefficient  Atom+Function  
  ----- ------------  ---------------      ----- ------------  ---------------
    42      0.831671   4 S  pz               41     -0.554946   4 S  py        
    40     -0.045991   4 S  px        

 Vector   57  Occ=2.000000D+00  E=-1.015765D+00
              MO Center=  2.6D+01,  9.1D+00,  9.2D+00, r^2= 1.6D+00
   Bfn.  Coefficient  Atom+Function         Bfn.  Coefficient  Atom+Function  
  ----- ------------  ---------------      ----- ------------  ---------------
   468      0.225926  32 S  s               486      0.214303  33 N  s         
   487      0.214593  33 N  s               452      0.213103  31 N  s         
   453      0.211911  31 N  s               437      0.158138  30 C  s         
   501      0.158726  34 C  s               469      0.106894  32 S  s         
   454     -0.091665  31 N  px              474      0.068209  32 S  py        

 Vector   58  Occ=2.000000D+00  E=-9.208861D-01
              MO Center=  2.3D+01,  1.1D+01,  1.0D+01, r^2= 8.1D+00
   Bfn.  Coefficient  Atom+Function         Bfn.  Coefficient  Atom+Function  
  ----- ------------  ---------------      ----- ------------  ---------------
   338      0.177122  23 C  s               320      0.171286  22 S  s         
   353      0.150189  24 C  s               274      0.144730  19 C  s         
   304      0.138020  21 C  s               339      0.124252  23 C  s         
   369      0.117085  25 S  s               289      0.111918  20 C  s         
   422      0.107342  29 C  s               354      0.103160  24 C  s         

 Vector   59  Occ=2.000000D+00  E=-9.107284D-01
              MO Center=  1.6D+01,  1.1D+01,  9.7D+00, r^2= 2.2D+01
   Bfn.  Coefficient  Atom+Function         Bfn.  Coefficient  Atom+Function  
  ----- ------------  ---------------      ----- ------------  ---------------
   101      0.137519   8 C  s               147      0.137419  11 S  s         
    86      0.134162   7 C  s               165      0.134679  12 C  s         
   259      0.122618  18 C  s               241      0.118559  17 S  s         
   180      0.105665  13 C  s                56      0.102443   5 C  s         
   131      0.099187  10 C  s               102      0.085451   8 C  s         

 Vector   60  Occ=2.000000D+00  E=-9.037424D-01
              MO Center=  2.1D+01,  1.1D+01,  1.0D+01, r^2= 3.7D+01
   Bfn.  Coefficient  Atom+Function         Bfn.  Coefficient  Atom+Function  
  ----- ------------  ---------------      ----- ------------  ---------------
   487      0.162791  33 N  s               453     -0.147820  31 N  s         
   486      0.144564  33 N  s               452     -0.126578  31 N  s         
   422     -0.125788  29 C  s               369     -0.122575  25 S  s         
   354     -0.109503  24 C  s               353     -0.101244  24 C  s         
   437     -0.096580  30 C  s               407     -0.095363  28 C  s         

 Vector   61  Occ=2.000000D+00  E=-8.975777D-01
              MO Center=  2.0D+01,  9.9D+00,  9.4D+00, r^2= 3.5D+01
   Bfn.  Coefficient  Atom+Function         Bfn.  Coefficient  Atom+Function  
  ----- ------------  ---------------      ----- ------------  ---------------
   453      0.199549  31 N  s               487     -0.187531  33 N  s         
   452      0.175604  31 N  s               486     -0.161938  33 N  s         
   241      0.147473  17 S  s               259      0.120181  18 C  s         
   225      0.105332  16 C  s               501     -0.104225  34 C  s         
   195      0.100735  14 C  s               210      0.095880  15 C  s         

 Vector   62  Occ=2.000000D+00  E=-8.828042D-01
              MO Center=  2.0D+01,  1.1D+01,  1.0D+01, r^2= 4.3D+01
   Bfn.  Coefficient  Atom+Function         Bfn.  Coefficient  Atom+Function  
  ----- ------------  ---------------      ----- ------------  ---------------
   453      0.170286  31 N  s               487     -0.166617  33 N  s         
   452      0.149476  31 N  s               486     -0.144007  33 N  s         
   369     -0.126964  25 S  s               320      0.117955  22 S  s         
    38      0.112803   4 S  s               304      0.105551  21 C  s         
   147     -0.098749  11 S  s               165     -0.098129  12 C  s         

 Vector   63  Occ=2.000000D+00  E=-8.753734D-01
              MO Center=  1.7D+01,  1.1D+01,  9.8D+00, r^2= 3.5D+01
   Bfn.  Coefficient  Atom+Function         Bfn.  Coefficient  Atom+Function  
  ----- ------------  ---------------      ----- ------------  ---------------
    38      0.137374   4 S  s               147     -0.134295  11 S  s         
   241      0.111581  17 S  s                17      0.104330   2 C  s         
   101     -0.104143   8 C  s                86     -0.099160   7 C  s         
     2      0.097300   1 C  s               180     -0.095719  13 C  s         
   487      0.094269  33 N  s               320     -0.093606  22 S  s         

 Vector   64  Occ=2.000000D+00  E=-8.256355D-01
              MO Center=  2.0D+01,  1.1D+01,  9.9D+00, r^2= 3.4D+01
   Bfn.  Coefficient  Atom+Function         Bfn.  Coefficient  Atom+Function  
  ----- ------------  ---------------      ----- ------------  ---------------
   304      0.134411  21 C  s               468      0.132128  32 S  s         
   369      0.123315  25 S  s               501     -0.112596  34 C  s         
   165     -0.110394  12 C  s               274     -0.109586  19 C  s         
   437     -0.109062  30 C  s               259     -0.105547  18 C  s         
   387      0.103338  26 C  s               225      0.102346  16 C  s         

 Vector   65  Occ=2.000000D+00  E=-8.155221D-01
              MO Center=  1.7D+01,  1.1D+01,  9.8D+00, r^2= 4.1D+01
   Bfn.  Coefficient  Atom+Function         Bfn.  Coefficient  Atom+Function  
  ----- ------------  ---------------      ----- ------------  ---------------
   165      0.142050  12 C  s               468      0.128285  32 S  s         
    38      0.124432   4 S  s                17      0.121528   2 C  s         
   116     -0.114049   9 C  s               320      0.113156  22 S  s         
    71     -0.107409   6 C  s               147      0.104100  11 S  s         
   437     -0.104494  30 C  s               501     -0.102947  34 C  s         

 Vector   66  Occ=2.000000D+00  E=-7.897977D-01
              MO Center=  1.4D+01,  1.1D+01,  9.7D+00, r^2= 2.1D+01
   Bfn.  Coefficient  Atom+Function         Bfn.  Coefficient  Atom+Function  
  ----- ------------  ---------------      ----- ------------  ---------------
    71      0.203920   6 C  s               147     -0.160631  11 S  s         
    72      0.157370   6 C  s               116     -0.155347   9 C  s         
    56      0.125916   5 C  s                86      0.126425   7 C  s         
   117     -0.118931   9 C  s               101     -0.116820   8 C  s         
   148     -0.106083  11 S  s                 2     -0.104668   1 C  s         

 Vector   67  Occ=2.000000D+00  E=-7.889114D-01
              MO Center=  2.0D+01,  1.1D+01,  9.9D+00, r^2= 3.3D+01
   Bfn.  Coefficient  Atom+Function         Bfn.  Coefficient  Atom+Function  
  ----- ------------  ---------------      ----- ------------  ---------------
   338      0.158730  23 C  s               468      0.127501  32 S  s         
   116      0.126419   9 C  s               339      0.125821  23 C  s         
   304     -0.122116  21 C  s               353      0.112926  24 C  s         
   407     -0.112013  28 C  s               289     -0.109295  20 C  s         
   320      0.106219  22 S  s                38     -0.096052   4 S  s         

 Vector   68  Occ=2.000000D+00  E=-7.666114D-01
              MO Center=  2.1D+01,  1.1D+01,  9.9D+00, r^2= 2.5D+01
   Bfn.  Coefficient  Atom+Function         Bfn.  Coefficient  Atom+Function  
  ----- ------------  ---------------      ----- ------------  ---------------
   289     -0.153039  20 C  s               274     -0.147877  19 C  s         
   225      0.140455  16 C  s               259     -0.138353  18 C  s         
   353      0.129497  24 C  s               387     -0.129579  26 C  s         
   290     -0.123195  20 C  s               275     -0.114678  19 C  s         
   226      0.106436  16 C  s               260     -0.101266  18 C  s         

 Vector   69  Occ=2.000000D+00  E=-7.601571D-01
              MO Center=  1.9D+01,  1.0D+01,  9.6D+00, r^2= 2.2D+01
   Bfn.  Coefficient  Atom+Function         Bfn.  Coefficient  Atom+Function  
  ----- ------------  ---------------      ----- ------------  ---------------
   241      0.217166  17 S  s               210     -0.196061  15 C  s         
   242      0.159880  17 S  s               320      0.139989  22 S  s         
   195     -0.129600  14 C  s               211     -0.127341  15 C  s         
   369     -0.123351  25 S  s               321      0.117253  22 S  s         
   147     -0.103258  11 S  s               370     -0.099245  25 S  s         

 Vector   70  Occ=2.000000D+00  E=-7.505939D-01
              MO Center=  2.1D+01,  1.1D+01,  1.0D+01, r^2= 2.8D+01
   Bfn.  Coefficient  Atom+Function         Bfn.  Coefficient  Atom+Function  
  ----- ------------  ---------------      ----- ------------  ---------------
   369      0.209075  25 S  s               241      0.182614  17 S  s         
   320     -0.172990  22 S  s               370      0.173344  25 S  s         
   321     -0.148264  22 S  s               195     -0.143297  14 C  s         
   407     -0.142323  28 C  s               242      0.140848  17 S  s         
   422     -0.121050  29 C  s               408     -0.109744  28 C  s         

 Vector   71  Occ=2.000000D+00  E=-7.428977D-01
              MO Center=  1.4D+01,  1.1D+01,  9.7D+00, r^2= 2.2D+01
   Bfn.  Coefficient  Atom+Function         Bfn.  Coefficient  Atom+Function  
  ----- ------------  ---------------      ----- ------------  ---------------
    38      0.196870   4 S  s               147      0.192205  11 S  s         
     2     -0.169391   1 C  s               241      0.161610  17 S  s         
   180     -0.156857  13 C  s               148      0.153328  11 S  s         
    39      0.151489   4 S  s               242      0.130546  17 S  s         
   181     -0.124449  13 C  s                 3     -0.115050   1 C  s         

 Vector   72  Occ=2.000000D+00  E=-7.314892D-01
              MO Center=  2.4D+01,  1.0D+01,  9.9D+00, r^2= 1.2D+01
   Bfn.  Coefficient  Atom+Function         Bfn.  Coefficient  Atom+Function  
  ----- ------------  ---------------      ----- ------------  ---------------
   468      0.274909  32 S  s               469      0.229761  32 S  s         
   320     -0.210312  22 S  s               321     -0.185368  22 S  s         
   369     -0.174311  25 S  s               370     -0.148276  25 S  s         
   501     -0.130963  34 C  s               502     -0.125687  34 C  s         
   437     -0.125015  30 C  s               290      0.110029  20 C  s         

 Vector   73  Occ=2.000000D+00  E=-7.286088D-01
              MO Center=  1.9D+01,  1.1D+01,  1.0D+01, r^2= 3.9D+01
   Bfn.  Coefficient  Atom+Function         Bfn.  Coefficient  Atom+Function  
  ----- ------------  ---------------      ----- ------------  ---------------
   165      0.132567  12 C  s               304      0.130326  21 C  s         
   241     -0.125853  17 S  s               387     -0.125426  26 C  s         
    17     -0.118398   2 C  s               407     -0.117449  28 C  s         
    56      0.113927   5 C  s               101     -0.111642   8 C  s         
   353      0.111595  24 C  s                86     -0.110925   7 C  s         

 Vector   74  Occ=2.000000D+00  E=-7.020654D-01
              MO Center=  1.8D+01,  1.1D+01,  9.8D+00, r^2= 3.6D+01
   Bfn.  Coefficient  Atom+Function         Bfn.  Coefficient  Atom+Function  
  ----- ------------  ---------------      ----- ------------  ---------------
   147      0.128338  11 S  s               148      0.127252  11 S  s         
   259     -0.121224  18 C  s               289     -0.115539  20 C  s         
   225      0.113175  16 C  s               290     -0.113663  20 C  s         
    56      0.109323   5 C  s               101     -0.107660   8 C  s         
   226      0.107998  16 C  s               131      0.107199  10 C  s         

 Vector   75  Occ=2.000000D+00  E=-6.983885D-01
              MO Center=  1.3D+01,  1.1D+01,  9.7D+00, r^2= 1.2D+01
   Bfn.  Coefficient  Atom+Function         Bfn.  Coefficient  Atom+Function  
  ----- ------------  ---------------      ----- ------------  ---------------
    38      0.224643   4 S  s                39      0.210860   4 S  s         
   147     -0.203678  11 S  s               148     -0.199360  11 S  s         
   117      0.173416   9 C  s                72     -0.169804   6 C  s         
     2     -0.164278   1 C  s               180      0.162442  13 C  s         
    71     -0.161090   6 C  s               181      0.158012  13 C  s         

 Vector   76  Occ=2.000000D+00  E=-6.505043D-01
              MO Center=  1.8D+01,  1.1D+01,  9.7D+00, r^2= 3.4D+01
   Bfn.  Coefficient  Atom+Function         Bfn.  Coefficient  Atom+Function  
  ----- ------------  ---------------      ----- ------------  ---------------
   242      0.140276  17 S  s               241      0.132170  17 S  s         
   261      0.125919  18 C  px              306      0.124158  21 C  px        
   227     -0.120678  16 C  px              276     -0.111969  19 C  px        
    17     -0.109405   2 C  s               167     -0.108783  12 C  px        
    18     -0.104385   2 C  s               290      0.101803  20 C  s         

 Vector   77  Occ=2.000000D+00  E=-6.380251D-01
              MO Center=  2.3D+01,  1.0D+01,  9.8D+00, r^2= 2.5D+01
   Bfn.  Coefficient  Atom+Function         Bfn.  Coefficient  Atom+Function  
  ----- ------------  ---------------      ----- ------------  ---------------
   468      0.227036  32 S  s               469      0.223453  32 S  s         
   439     -0.183149  30 C  px              504      0.160957  34 C  py        
   339     -0.133735  23 C  s               453     -0.127980  31 N  s         
   487     -0.122114  33 N  s               452     -0.118403  31 N  s         
   486     -0.111772  33 N  s               338     -0.109733  23 C  s         

 Vector   78  Occ=2.000000D+00  E=-6.224287D-01
              MO Center=  1.8D+01,  1.1D+01,  9.8D+00, r^2= 3.5D+01
   Bfn.  Coefficient  Atom+Function         Bfn.  Coefficient  Atom+Function  
  ----- ------------  ---------------      ----- ------------  ---------------
   211      0.131493  15 C  s               305     -0.125189  21 C  s         
   210      0.122697  15 C  s               370      0.119963  25 S  s         
   321      0.112581  22 S  s                71      0.111487   6 C  s         
   304     -0.111625  21 C  s               340     -0.109781  23 C  px        
   354     -0.106345  24 C  s               369      0.106506  25 S  s         

 Vector   79  Occ=2.000000D+00  E=-6.153488D-01
              MO Center=  2.5D+01,  1.1D+01,  1.0D+01, r^2= 1.0D+01
   Bfn.  Coefficient  Atom+Function         Bfn.  Coefficient  Atom+Function  
  ----- ------------  ---------------      ----- ------------  ---------------
   438      0.180048  30 C  s               502     -0.175432  34 C  s         
   437      0.158699  30 C  s               503      0.155666  34 C  px        
   425     -0.143028  29 C  py              401      0.137495  27 H  s         
   387      0.136163  26 C  s               388      0.133589  26 C  s         
   321     -0.132714  22 S  s               473     -0.132167  32 S  px        

 Vector   80  Occ=2.000000D+00  E=-5.985035D-01
              MO Center=  1.5D+01,  1.1D+01,  9.6D+00, r^2= 1.8D+01
   Bfn.  Coefficient  Atom+Function         Bfn.  Coefficient  Atom+Function  
  ----- ------------  ---------------      ----- ------------  ---------------
   148      0.159098  11 S  s               525      0.132247  37 H  s         
   147      0.129153  11 S  s                89      0.126186   7 C  py        
   520      0.121920  36 H  s               101     -0.120953   8 C  s         
   134     -0.112767  10 C  py              116      0.108794   9 C  s         
   104     -0.107322   8 C  py               88      0.101882   7 C  px        

 Vector   81  Occ=2.000000D+00  E=-5.852486D-01
              MO Center=  2.1D+01,  1.0D+01,  9.9D+00, r^2= 3.1D+01
   Bfn.  Coefficient  Atom+Function         Bfn.  Coefficient  Atom+Function  
  ----- ------------  ---------------      ----- ------------  ---------------
   370      0.156552  25 S  s               439      0.137993  30 C  px        
   226      0.136469  16 C  s               424      0.129036  29 C  px        
   369      0.123442  25 S  s               275      0.118254  19 C  s         
   290     -0.115869  20 C  s               321     -0.112701  22 S  s         
   225      0.111800  16 C  s               306     -0.110754  21 C  px        

 Vector   82  Occ=2.000000D+00  E=-5.736894D-01
              MO Center=  1.5D+01,  1.1D+01,  9.6D+00, r^2= 2.9D+01
   Bfn.  Coefficient  Atom+Function         Bfn.  Coefficient  Atom+Function  
  ----- ------------  ---------------      ----- ------------  ---------------
    39      0.186612   4 S  s                73      0.155170   6 C  px        
    38      0.151846   4 S  s               181     -0.147666  13 C  s         
   196     -0.142965  14 C  s                57     -0.137926   5 C  s         
    18     -0.127349   2 C  s                56     -0.127727   5 C  s         
   321      0.123314  22 S  s                31     -0.121568   3 H  s         

 Vector   83  Occ=2.000000D+00  E=-5.693660D-01
              MO Center=  1.3D+01,  1.1D+01,  9.7D+00, r^2= 2.4D+01
   Bfn.  Coefficient  Atom+Function         Bfn.  Coefficient  Atom+Function  
  ----- ------------  ---------------      ----- ------------  ---------------
     3      0.189784   1 C  s               102      0.155353   8 C  s         
     2      0.154564   1 C  s                31     -0.149709   3 H  s         
    43      0.147409   4 S  px              133     -0.143724  10 C  px        
   118      0.142242   9 C  px               18     -0.140233   2 C  s         
   515      0.138688  35 H  s               101      0.135882   8 C  s         

 Vector   84  Occ=2.000000D+00  E=-5.605332D-01
              MO Center=  2.5D+01,  1.1D+01,  1.1D+01, r^2= 1.7D+01
   Bfn.  Coefficient  Atom+Function         Bfn.  Coefficient  Atom+Function  
  ----- ------------  ---------------      ----- ------------  ---------------
   408      0.221947  28 C  s               550      0.195032  42 H  s         
   370      0.181486  25 S  s               355     -0.177310  24 C  px        
   388     -0.168003  26 C  s               407      0.163920  28 C  s         
   424      0.159853  29 C  px              401     -0.133565  27 H  s         
   409      0.126605  28 C  px              369      0.124120  25 S  s         

 Vector   85  Occ=2.000000D+00  E=-5.489118D-01
              MO Center=  2.3D+01,  1.0D+01,  9.9D+00, r^2= 1.2D+01
   Bfn.  Coefficient  Atom+Function         Bfn.  Coefficient  Atom+Function  
  ----- ------------  ---------------      ----- ------------  ---------------
   321      0.179506  22 S  s               545      0.171674  41 H  s         
   503     -0.165410  34 C  px              277     -0.157666  19 C  py        
   292     -0.155341  20 C  py              341      0.146844  23 C  py        
   440      0.144551  30 C  py              425     -0.125870  29 C  py        
   290      0.123317  20 C  s               355     -0.116491  24 C  px        

 Vector   86  Occ=2.000000D+00  E=-5.426642D-01
              MO Center=  1.7D+01,  9.8D+00,  9.2D+00, r^2= 1.5D+01
   Bfn.  Coefficient  Atom+Function         Bfn.  Coefficient  Atom+Function  
  ----- ------------  ---------------      ----- ------------  ---------------
   242      0.272440  17 S  s               198     -0.193218  14 C  py        
   213     -0.183194  15 C  py              241      0.158512  17 S  s         
   535      0.156200  39 H  s               181     -0.149035  13 C  s         
   540      0.149659  40 H  s               199     -0.126671  14 C  pz        
   214     -0.123991  15 C  pz               39      0.113724   4 S  s         

 Vector   87  Occ=2.000000D+00  E=-5.356869D-01
              MO Center=  1.6D+01,  1.0D+01,  9.5D+00, r^2= 2.5D+01
   Bfn.  Coefficient  Atom+Function         Bfn.  Coefficient  Atom+Function  
  ----- ------------  ---------------      ----- ------------  ---------------
   148      0.165225  11 S  s               183      0.147123  13 C  py        
   540      0.141591  40 H  s               530      0.140192  38 H  s         
   167      0.135390  12 C  px               73      0.126344   6 C  px        
   213     -0.117297  15 C  py              227      0.113212  16 C  px        
   242      0.110541  17 S  s               515     -0.106876  35 H  s         

 Vector   88  Occ=2.000000D+00  E=-5.168258D-01
              MO Center=  2.1D+01,  1.0D+01,  9.7D+00, r^2= 3.7D+01
   Bfn.  Coefficient  Atom+Function         Bfn.  Coefficient  Atom+Function  
  ----- ------------  ---------------      ----- ------------  ---------------
   305      0.196603  21 C  s               291     -0.142341  20 C  px        
   370      0.126751  25 S  s               473      0.125321  32 S  px        
   246     -0.120558  17 S  px              488     -0.121018  33 N  px        
   261      0.119489  18 C  px              502      0.120023  34 C  s         
   440      0.118602  30 C  py              454      0.118225  31 N  px        

 Vector   89  Occ=2.000000D+00  E=-5.021700D-01
              MO Center=  2.3D+01,  1.0D+01,  9.7D+00, r^2= 2.2D+01
   Bfn.  Coefficient  Atom+Function         Bfn.  Coefficient  Atom+Function  
  ----- ------------  ---------------      ----- ------------  ---------------
   339      0.174189  23 C  s               325      0.168040  22 S  px        
   354     -0.148832  24 C  s               455     -0.141824  31 N  py        
   489      0.139717  33 N  py              473      0.133564  32 S  px        
   503      0.133098  34 C  px              226      0.126486  16 C  s         
   340     -0.126436  23 C  px              439     -0.124450  30 C  px        

 Vector   90  Occ=2.000000D+00  E=-4.960517D-01
              MO Center=  1.7D+01,  1.1D+01,  9.9D+00, r^2= 4.3D+01
   Bfn.  Coefficient  Atom+Function         Bfn.  Coefficient  Atom+Function  
  ----- ------------  ---------------      ----- ------------  ---------------
   166      0.208084  12 C  s               354      0.190027  24 C  s         
   339     -0.172031  23 C  s                72      0.166329   6 C  s         
    19      0.152843   2 C  px               57     -0.147416   5 C  s         
   409      0.141643  28 C  px              515     -0.136060  35 H  s         
     5      0.126939   1 C  py              227     -0.125228  16 C  px        

 Vector   91  Occ=2.000000D+00  E=-4.868586D-01
              MO Center=  1.5D+01,  1.1D+01,  9.8D+00, r^2= 3.1D+01
   Bfn.  Coefficient  Atom+Function         Bfn.  Coefficient  Atom+Function  
  ----- ------------  ---------------      ----- ------------  ---------------
    39      0.193171   4 S  s               530      0.183532  38 H  s         
   148      0.180776  11 S  s               515      0.174630  35 H  s         
   525     -0.144927  37 H  s               354      0.139257  24 C  s         
     3      0.135731   1 C  s               183      0.128648  13 C  py        
   182      0.127808  13 C  px              520     -0.128112  36 H  s         

 Vector   92  Occ=2.000000D+00  E=-4.752328D-01
              MO Center=  1.5D+01,  1.1D+01,  9.7D+00, r^2= 2.5D+01
   Bfn.  Coefficient  Atom+Function         Bfn.  Coefficient  Atom+Function  
  ----- ------------  ---------------      ----- ------------  ---------------
    57      0.262225   5 C  s               182     -0.214639  13 C  px        
   102     -0.202514   8 C  s                72     -0.193467   6 C  s         
   525      0.179026  37 H  s                87      0.168350   7 C  s         
   117      0.167207   9 C  s                88      0.154025   7 C  px        
    43      0.147282   4 S  px              132     -0.142759  10 C  s         

 Vector   93  Occ=2.000000D+00  E=-4.638792D-01
              MO Center=  1.8D+01,  1.1D+01,  9.8D+00, r^2= 4.1D+01
   Bfn.  Coefficient  Atom+Function         Bfn.  Coefficient  Atom+Function  
  ----- ------------  ---------------      ----- ------------  ---------------
   291      0.185997  20 C  px              102      0.184549   8 C  s         
   276     -0.185056  19 C  px              132      0.159976  10 C  s         
    74      0.152527   6 C  py              520      0.145512  36 H  s         
   354      0.140150  24 C  s               152     -0.134551  11 S  px        
   103      0.128853   8 C  px              502     -0.121696  34 C  s         

 Vector   94  Occ=2.000000D+00  E=-4.580524D-01
              MO Center=  2.5D+01,  9.7D+00,  9.6D+00, r^2= 4.7D+00
   Bfn.  Coefficient  Atom+Function         Bfn.  Coefficient  Atom+Function  
  ----- ------------  ---------------      ----- ------------  ---------------
   505      0.186553  34 C  pz              441      0.184189  30 C  pz        
   490      0.166583  33 N  pz              456      0.164677  31 N  pz        
   475      0.158979  32 S  pz              504     -0.124478  34 C  py        
   440     -0.122902  30 C  py              278      0.118483  19 C  pz        
   426      0.112672  29 C  pz              489     -0.111155  33 N  py        

 Vector   95  Occ=2.000000D+00  E=-4.502320D-01
              MO Center=  2.3D+01,  1.1D+01,  1.0D+01, r^2= 2.2D+01
   Bfn.  Coefficient  Atom+Function         Bfn.  Coefficient  Atom+Function  
  ----- ------------  ---------------      ----- ------------  ---------------
   545     -0.180123  41 H  s               438      0.179091  30 C  s         
   292      0.160651  20 C  py              325      0.142970  22 S  px        
   469      0.141384  32 S  s               410      0.135613  28 C  py        
   502      0.131670  34 C  s               339     -0.126684  23 C  s         
   375     -0.126975  25 S  py              340     -0.121248  23 C  px        

 Vector   96  Occ=2.000000D+00  E=-4.482272D-01
              MO Center=  1.4D+01,  1.1D+01,  9.6D+00, r^2= 2.0D+01
   Bfn.  Coefficient  Atom+Function         Bfn.  Coefficient  Atom+Function  
  ----- ------------  ---------------      ----- ------------  ---------------
   525     -0.215298  37 H  s               119      0.210454   9 C  py        
    74      0.199397   6 C  py              520      0.198830  36 H  s         
    87     -0.156959   7 C  s               103     -0.147723   8 C  px        
   120      0.146424   9 C  pz               75      0.137239   6 C  pz        
   133      0.132715  10 C  px               88      0.130801   7 C  px        

 Vector   97  Occ=2.000000D+00  E=-4.340834D-01
              MO Center=  2.0D+01,  1.1D+01,  1.0D+01, r^2= 4.5D+01
   Bfn.  Coefficient  Atom+Function         Bfn.  Coefficient  Atom+Function  
  ----- ------------  ---------------      ----- ------------  ---------------
   390      0.191771  26 C  py              401      0.188242  27 H  s         
    19      0.152065   2 C  px              355      0.136420  24 C  px        
   438     -0.135330  30 C  s               197     -0.133983  14 C  px        
   391      0.131755  26 C  pz               31     -0.127591   3 H  s         
   410     -0.125657  28 C  py              290     -0.123188  20 C  s         

 Vector   98  Occ=2.000000D+00  E=-4.290438D-01
              MO Center=  2.2D+01,  1.0D+01,  9.9D+00, r^2= 2.6D+01
   Bfn.  Coefficient  Atom+Function         Bfn.  Coefficient  Atom+Function  
  ----- ------------  ---------------      ----- ------------  ---------------
   321     -0.174872  22 S  s               306     -0.169149  21 C  px        
   424      0.168356  29 C  px              227      0.162842  16 C  px        
   291      0.159118  20 C  px              370     -0.141859  25 S  s         
   453     -0.134357  31 N  s               409     -0.131756  28 C  px        
   487     -0.131566  33 N  s               197      0.127420  14 C  px        

 Vector   99  Occ=2.000000D+00  E=-4.286061D-01
              MO Center=  1.8D+01,  1.1D+01,  1.0D+01, r^2= 5.3D+01
   Bfn.  Coefficient  Atom+Function         Bfn.  Coefficient  Atom+Function  
  ----- ------------  ---------------      ----- ------------  ---------------
    19      0.191070   2 C  px              410      0.159666  28 C  py        
    31     -0.157653   3 H  s               390     -0.150933  26 C  py        
   438      0.144135  30 C  s                58      0.142128   5 C  px        
   425     -0.136576  29 C  py              276     -0.123031  19 C  px        
     5      0.120982   1 C  py              261      0.121497  18 C  px        

 Vector  100  Occ=2.000000D+00  E=-4.245714D-01
              MO Center=  1.7D+01,  1.0D+01,  9.5D+00, r^2= 1.9D+01
   Bfn.  Coefficient  Atom+Function         Bfn.  Coefficient  Atom+Function  
  ----- ------------  ---------------      ----- ------------  ---------------
   263      0.136477  18 C  pz              169      0.133380  12 C  pz        
   229      0.125867  16 C  pz              248      0.120541  17 S  pz        
    90      0.116602   7 C  pz              105      0.116203   8 C  pz        
   308      0.107576  21 C  pz              154      0.101516  11 S  pz        
   184      0.101150  13 C  pz              199      0.096234  14 C  pz        

 Vector  101  Occ=2.000000D+00  E=-4.218582D-01
              MO Center=  1.7D+01,  1.1D+01,  9.9D+00, r^2= 3.4D+01
   Bfn.  Coefficient  Atom+Function         Bfn.  Coefficient  Atom+Function  
  ----- ------------  ---------------      ----- ------------  ---------------
   530     -0.158399  38 H  s               183     -0.155019  13 C  py        
    73      0.153729   6 C  px              167     -0.147884  12 C  px        
   118      0.144380   9 C  px               89      0.143055   7 C  py        
   515      0.135679  35 H  s               261      0.134077  18 C  px        
   355      0.131831  24 C  px              103     -0.124999   8 C  px        

 Vector  102  Occ=2.000000D+00  E=-4.173490D-01
              MO Center=  1.9D+01,  1.1D+01,  9.8D+00, r^2= 3.7D+01
   Bfn.  Coefficient  Atom+Function         Bfn.  Coefficient  Atom+Function  
  ----- ------------  ---------------      ----- ------------  ---------------
   342      0.123823  23 C  pz              308      0.121770  21 C  pz        
   327      0.120920  22 S  pz              475     -0.114389  32 S  pz        
   105     -0.112305   8 C  pz               60     -0.109229   5 C  pz        
    90     -0.109113   7 C  pz              135     -0.106047  10 C  pz        
   456     -0.095297  31 N  pz              357      0.094665  24 C  pz        

 Vector  103  Occ=2.000000D+00  E=-4.128461D-01
              MO Center=  1.7D+01,  1.0D+01,  9.3D+00, r^2= 2.4D+01
   Bfn.  Coefficient  Atom+Function         Bfn.  Coefficient  Atom+Function  
  ----- ------------  ---------------      ----- ------------  ---------------
   212      0.207901  15 C  px              262     -0.199027  18 C  py        
   540      0.197695  40 H  s               197     -0.185435  14 C  px        
    43     -0.146950   4 S  px              198      0.146422  14 C  py        
   246      0.131662  17 S  px              263     -0.129415  18 C  pz        
   118      0.127470   9 C  px              306      0.120605  21 C  px        

 Vector  104  Occ=2.000000D+00  E=-4.061361D-01
              MO Center=  2.1D+01,  1.1D+01,  1.0D+01, r^2= 3.5D+01
   Bfn.  Coefficient  Atom+Function         Bfn.  Coefficient  Atom+Function  
  ----- ------------  ---------------      ----- ------------  ---------------
   357      0.153823  24 C  pz              376      0.136470  25 S  pz        
   248     -0.120464  17 S  pz              263     -0.117370  18 C  pz        
   426      0.114936  29 C  pz              229     -0.112682  16 C  pz        
   356     -0.102617  24 C  py              475     -0.102778  32 S  pz        
   391      0.100003  26 C  pz              199     -0.096925  14 C  pz        

 Vector  105  Occ=2.000000D+00  E=-4.057572D-01
              MO Center=  2.0D+01,  1.0D+01,  9.8D+00, r^2= 2.2D+01
   Bfn.  Coefficient  Atom+Function         Bfn.  Coefficient  Atom+Function  
  ----- ------------  ---------------      ----- ------------  ---------------
   340     -0.165315  23 C  px              535     -0.165870  39 H  s         
   197      0.153110  14 C  px              212     -0.146391  15 C  px        
   356      0.143289  24 C  py              228      0.136821  16 C  py        
   246      0.134887  17 S  px              291     -0.135494  20 C  px        
[...]
   Bfn.  Coefficient  Atom+Function         Bfn.  Coefficient  Atom+Function  
  ----- ------------  ---------------      ----- ------------  ---------------
    72      5.092685   6 C  s               181     -4.114126  13 C  s         
    57     -3.744132   5 C  s               166      3.497795  12 C  s         
   117     -3.454988   9 C  s                91      2.735183   7 C  px        
   102      2.633274   8 C  s                 3      2.455547   1 C  s         
   354      2.250842  24 C  s               136      2.078293  10 C  px        

 Vector  546  Occ=0.000000D+00  E= 3.366715D+00
              MO Center=  1.8D+01,  1.0D+01,  9.6D+00, r^2= 2.9D+01
   Bfn.  Coefficient  Atom+Function         Bfn.  Coefficient  Atom+Function  
  ----- ------------  ---------------      ----- ------------  ---------------
   290     -5.330293  20 C  s               181      5.255823  13 C  s         
   354     -5.164207  24 C  s               438     -5.089192  30 C  s         
   502      4.301774  34 C  s               166     -3.747394  12 C  s         
   339      3.733157  23 C  s               305      3.696960  21 C  s         
   117      3.622989   9 C  s                57      3.544590   5 C  s         

 Vector  547  Occ=0.000000D+00  E= 3.463675D+00
              MO Center=  1.7D+01,  1.1D+01,  9.9D+00, r^2= 4.1D+01
   Bfn.  Coefficient  Atom+Function         Bfn.  Coefficient  Atom+Function  
  ----- ------------  ---------------      ----- ------------  ---------------
    72      5.471509   6 C  s                57     -4.836112   5 C  s         
   502      4.687858  34 C  s               117     -4.367668   9 C  s         
   102      4.319210   8 C  s               181     -4.307177  13 C  s         
   166      4.270376  12 C  s               438     -4.215406  30 C  s         
   339      4.169855  23 C  s               354     -4.089957  24 C  s         

 Vector  548  Occ=0.000000D+00  E= 3.521154D+00
              MO Center=  2.3D+01,  1.1D+01,  1.1D+01, r^2= 3.6D+01
   Bfn.  Coefficient  Atom+Function         Bfn.  Coefficient  Atom+Function  
  ----- ------------  ---------------      ----- ------------  ---------------
   275      5.034320  19 C  s               408     -4.198789  28 C  s         
   502     -4.140013  34 C  s               339     -4.109997  23 C  s         
   388      2.996991  26 C  s               354      2.385382  24 C  s         
    87     -2.291698   7 C  s               438      2.195564  30 C  s         
   279      2.179856  19 C  px               72      2.088170   6 C  s         

 Vector  549  Occ=0.000000D+00  E= 3.590713D+00
              MO Center=  1.4D+01,  1.1D+01,  9.7D+00, r^2= 2.4D+01
   Bfn.  Coefficient  Atom+Function         Bfn.  Coefficient  Atom+Function  
  ----- ------------  ---------------      ----- ------------  ---------------
   181      4.785543  13 C  s                87     -4.070329   7 C  s         
   166     -3.872377  12 C  s                 3      2.850994   1 C  s         
   132     -2.792639  10 C  s               290      2.655596  20 C  s         
   305     -2.441377  21 C  s               226      2.269791  16 C  s         
    18     -2.208521   2 C  s               211     -1.611414  15 C  s         

 Vector  550  Occ=0.000000D+00  E= 3.762565D+00
              MO Center=  1.9D+01,  9.4D+00,  9.0D+00, r^2= 1.2D+01
   Bfn.  Coefficient  Atom+Function         Bfn.  Coefficient  Atom+Function  
  ----- ------------  ---------------      ----- ------------  ---------------
   211     -6.950791  15 C  s               196      6.371280  14 C  s         
   290      5.914550  20 C  s               226      4.779556  16 C  s         
   260     -4.685349  18 C  s               305     -4.049352  21 C  s         
   502     -4.043255  34 C  s               438      3.843293  30 C  s         
   354      3.751532  24 C  s               423     -3.396137  29 C  s         

 Vector  551  Occ=0.000000D+00  E= 3.949833D+00
              MO Center=  1.2D+01,  1.1D+01,  9.7D+00, r^2= 6.1D+00
   Bfn.  Coefficient  Atom+Function         Bfn.  Coefficient  Atom+Function  
  ----- ------------  ---------------      ----- ------------  ---------------
    87     10.019895   7 C  s               132     -9.906423  10 C  s         
   117      9.694781   9 C  s                72     -9.620495   6 C  s         
   102     -9.204158   8 C  s                57      9.122352   5 C  s         
   136     -4.061519  10 C  px               91     -3.976873   7 C  px        
    77      3.401759   6 C  py              122      3.413076   9 C  py        

 Vector  552  Occ=0.000000D+00  E= 4.025369D+00
              MO Center=  2.5D+01,  1.0D+01,  9.9D+00, r^2= 7.3D+00
   Bfn.  Coefficient  Atom+Function         Bfn.  Coefficient  Atom+Function  
  ----- ------------  ---------------      ----- ------------  ---------------
   339    -10.298591  23 C  s               275     10.112932  19 C  s         
   354     10.148050  24 C  s               423     -9.947866  29 C  s         
   438      8.694394  30 C  s               502     -8.477033  34 C  s         
   343     -4.667731  23 C  px              359     -4.139128  24 C  py        
   427      3.594476  29 C  px              442     -3.353354  30 C  px        

 Vector  553  Occ=0.000000D+00  E= 4.241170D+00
              MO Center=  2.6D+01,  9.0D+00,  9.2D+00, r^2= 3.0D+00
   Bfn.  Coefficient  Atom+Function         Bfn.  Coefficient  Atom+Function  
  ----- ------------  ---------------      ----- ------------  ---------------
   453      5.594977  31 N  s               487      5.472228  33 N  s         
   290     -2.251015  20 C  s               442     -2.188360  30 C  px        
   507      2.092214  34 C  py              279     -2.047322  19 C  px        
   427      1.681478  29 C  px              457     -1.439281  31 N  px        
   280     -1.374415  19 C  py              508      1.371279  34 C  pz        

 Vector  554  Occ=0.000000D+00  E= 4.763953D+00
              MO Center=  2.6D+01,  9.2D+00,  9.3D+00, r^2= 4.0D+00
   Bfn.  Coefficient  Atom+Function         Bfn.  Coefficient  Atom+Function  
  ----- ------------  ---------------      ----- ------------  ---------------
   423    -11.577617  29 C  s               275     11.206649  19 C  s         
   502    -10.786374  34 C  s               438     10.382958  30 C  s         
   507     -9.483165  34 C  py              442     -9.103331  30 C  px        
   279      9.038674  19 C  px              487     -8.985079  33 N  s         
   453      8.743271  31 N  s               354      8.178194  24 C  s         


 center of mass
 --------------
 x =  36.25272120 y =  20.10748095 z =  18.64068772

 moments of inertia (a.u.)
 ------------------
        5935.147178626972        2627.249802918649       -1781.438423628043
        2627.249802918649       65749.910697845669       -2594.234173628995
       -1781.438423628043       -2594.234173628995       68025.996768225334

     Multipole analysis of the density
     ---------------------------------

     L   x y z        total         alpha         beta         nuclear
     -   - - -        -----         -----         ----         -------
     0   0 0 0      0.000000   -132.000000   -132.000000    264.000000

     1   1 0 0     -0.407115  -4776.045299  -4776.045299   9551.683483
     1   0 1 0      0.185289  -2653.955890  -2653.955890   5308.097069
     1   0 0 1      0.101125  -2459.901219  -2459.901219   4919.903563

     2   2 0 0   -175.840873-189289.366773-189289.366773 378402.892673
     2   1 1 0      6.348796 -95383.272203 -95383.272203 190772.893201
     2   1 0 1      2.746710 -89482.359801 -89482.359801 178967.466313
     2   0 2 0   -152.089748 -54504.915608 -54504.915608 108857.741467
     2   0 1 1     14.633584 -50129.132010 -50129.132010 100272.897605
     2   0 0 2   -162.358591 -46402.245350 -46402.245350  92642.132109


            General Information
            -------------------
          SCF calculation type: DFT
          Wavefunction type:  closed shell.
          No. of atoms     :    42
          No. of electrons :   264
           Alpha electrons :   132
            Beta electrons :   132
          Charge           :     0
          Spin multiplicity:     1
          Use of symmetry is: off; symmetry adaption is: off
          Maximum number of iterations: 250
          This is a Direct SCF calculation.
          AO basis - number of functions:   554
                     number of shells:   234
          Convergence on energy requested:  1.00D-06
          Convergence on density requested:  1.00D-05
          Convergence on gradient requested:  5.00D-04

              XC Information
              --------------
                         B3LYP Method XC Potential
                     Hartree-Fock (Exact) Exchange  0.200          
                        Slater Exchange Functional  0.800 local    
                    Becke 1988 Exchange Functional  0.720 non-local
              Lee-Yang-Parr Correlation Functional  0.810          
                  VWN I RPA Correlation Functional  0.190 local    

             Grid Information
             ----------------
          Grid used for XC integration:  medium    
          Radial quadrature: Mura-Knowles        
          Angular quadrature: Lebedev. 
          Tag              B.-S. Rad. Rad. Pts. Rad. Cut. Ang. Pts.
          ---              ---------- --------- --------- ---------
          C                   0.70       49          16.0       434
          H                   0.35       45          15.0       434
          S                   1.00       88          16.0       590
          N                   0.65       49          13.0       434
          Grid pruning is: on 
          Number of quadrature shells:  2252
          Spatial weights used:  Erf1

          Convergence Information
          -----------------------
          Convergence aids based upon iterative change in 
          total energy or number of iterations. 
          Levelshifting, if invoked, occurs when the 
          HOMO/LUMO gap drops below (HL_TOL):  1.00D-02
          DIIS, if invoked, will attempt to extrapolate 
          using up to (NFOCK): 10 stored Fock matrices.

                    Damping(40%)  Levelshifting(0.5)       DIIS
                  --------------- ------------------- ---------------
          dE  on:    0.10+100         ASAP                start   
          dE off:    0.10D-02       250 iters           250 iters 


      Screening Tolerance Information
      -------------------------------
          Density screening/tol_rho:  1.00D-10
          AO Gaussian exp screening on grid/accAOfunc:  14
          CD Gaussian exp screening on grid/accCDfunc:  20
          XC Gaussian exp screening on grid/accXCfunc:  20
          Schwarz screening/accCoul:  1.00D-08



                            NWChem DFT Gradient Module
                            --------------------------


                                      molopt



  charge          =   0.00
  wavefunction    = closed shell



                         DFT ENERGY GRADIENTS

    atom               coordinates                        gradient
                 x          y          z           x          y          z
   1 C      18.139579  20.216460  17.711795    0.000009   0.000005   0.000004
   2 C      17.036910  22.174787  18.957542   -0.000039  -0.000029  -0.000021
   3 H      15.028986  22.587128  19.121638    0.000005   0.000045   0.000030
   4 S      19.221134  24.195106  20.426417   -0.000087  -0.000098  -0.000070
   5 C      21.759290  22.331802  19.323459   -0.000073  -0.000018  -0.000016
   6 C      24.321257  22.754094  19.746926   -0.000072  -0.000026  -0.000021
   7 C      26.062980  21.043935  18.702119   -0.000025  -0.000016  -0.000011
   8 C      25.156903  18.951098  17.255522    0.000016  -0.000026  -0.000016
   9 C      22.600282  18.528437  16.832112    0.000020   0.000027   0.000019
  10 C      20.858142  20.238616  17.876914   -0.000019   0.000003   0.000001
  11 S      27.681589  17.080882  16.147182    0.000014  -0.000039  -0.000026
  12 C      29.925929  19.106437  17.622911   -0.000027   0.000013   0.000008
  13 C      28.770411  21.066652  18.867002    0.000003   0.000033   0.000022
  14 C      33.716129  16.541561  16.121057    0.000007   0.000028   0.000020
  15 C      36.382478  16.534210  16.263585    0.000010  -0.000020  -0.000013
  16 C      37.369267  18.525051  17.646576    0.000050  -0.000032  -0.000019
  17 S      34.913055  20.447715  18.793701    0.000002  -0.000106  -0.000070
  18 C      32.587473  18.532876  17.387383   -0.000027  -0.000011  -0.000009
  19 C      44.421862  18.711165  18.160706   -0.000019   0.000035   0.000022
  20 C      42.076723  17.686377  17.347260    0.000005  -0.000027  -0.000018
  21 C      40.006711  19.055121  18.146112    0.000036   0.000026   0.000020
  22 S      40.960205  21.700201  19.963760   -0.000036   0.000080   0.000051
  23 C      44.151374  20.910756  19.613434   -0.000010   0.000057   0.000037
  24 C      46.285934  22.225423  20.608687    0.000035   0.000017   0.000013
  25 S      46.278993  24.977088  22.444373    0.000131   0.000039   0.000033
  26 C      49.581296  24.953493  22.611207    0.000055  -0.000034  -0.000020
  27 H      50.543061  26.439015  23.655624    0.000012  -0.000037  -0.000024
  28 C      50.622990  22.964245  21.341466    0.000035  -0.000034  -0.000021
  29 C      48.763113  21.382023  20.182887    0.000027  -0.000024  -0.000014
  30 C      49.118410  19.126065  18.697222   -0.000038  -0.000017  -0.000013
  31 N      51.326268  18.075754  18.118457   -0.000061  -0.000053  -0.000039
  32 S      50.669402  15.530324  16.383691   -0.000055   0.000035   0.000021
  33 N      47.526519  15.740031  16.349856    0.000033   0.000026   0.000019
  34 C      46.942462  17.786521  17.683096   -0.000025   0.000029   0.000017
  35 H      17.077619  18.776516  16.692251    0.000084   0.000019   0.000018
  36 H      24.973340  24.364122  20.857301   -0.000124  -0.000014  -0.000016
  37 H      21.949900  16.917918  15.721503    0.000150   0.000026   0.000026
  38 H      29.815946  22.516307  19.892139   -0.000060   0.000119   0.000076
  39 H      32.632441  15.113608  15.108298   -0.000092   0.000110   0.000069
  40 H      37.558758  15.100615  15.372023    0.000015  -0.000009  -0.000006
  41 H      41.952315  15.982349  16.203370    0.000103  -0.000089  -0.000054
  42 H      52.644138  22.604731  21.213341    0.000029  -0.000014  -0.000008

                 ----------------------------------------
                 |  Time  |  1-e(secs)   |  2-e(secs)   |
                 ----------------------------------------
                 |  CPU   |       0.45   |     293.47   |
                 ----------------------------------------
                 |  WALL  |       0.45   |     293.51   |
                 ----------------------------------------

 Task  times  cpu:     2501.5s     wall:     2433.4s
 Summary of allocated global arrays
-----------------------------------
  No active global arrays



                         GA Statistics for process    0
                         ------------------------------

       create   destroy   get      put      acc     scatter   gather  read&inc
calls:  233      220     4.32e+06 8.44e+04 9.00e+05    0        0     7.12e+04 
number of processes/call 0.00e+00 0.00e+00 0.00e+00 0.00e+00 0.00e+00
bytes total:             2.39e+10 4.71e+08 2.18e+09 0.00e+00 0.00e+00 5.70e+05
bytes remote:            0.00e+00 0.00e+00 0.00e+00 0.00e+00 0.00e+00 0.00e+00
Max memory consumed for GA by this process: 95757792 bytes
MA_summarize_allocated_blocks: starting scan ...
MA_summarize_allocated_blocks: scan completed: 0 heap blocks, 0 stack blocks
MA usage statistics:

	allocation statistics:
					      heap	     stack
					      ----	     -----
	current number of blocks	         0	         0
	maximum number of blocks	        23	        53
	current total bytes		         0	         0
	maximum total bytes		    408232	  33723480
	maximum total K-bytes		       409	     33724
	maximum total M-bytes		         1	        34


                                NWChem Input Module
                                -------------------





                                     CITATION
                                     --------
                Please cite the following reference when publishing
                           results obtained with NWChem:

          E. Apr, E. J. Bylaska, W. A. de Jong, N. Govind, K. Kowalski,
       T. P. Straatsma, M. Valiev, H. J. J. van Dam, Y. Alexeev, J. Anchell,
       V. Anisimov, F. W. Aquino, R. Atta-Fynn, J. Autschbach, N. P. Bauman,
     J. C. Becca, D. E. Bernholdt, K. Bhaskaran-Nair, S. Bogatko, P. Borowski,
        J. Boschen, J. Brabec, A. Bruner, E. Caut, Y. Chen, G. N. Chuev,
      C. J. Cramer, J. Daily, M. J. O. Deegan, T. H. Dunning Jr., M. Dupuis,
   K. G. Dyall, G. I. Fann, S. A. Fischer, A. Fonari, H. Frchtl, L. Gagliardi,
      J. Garza, N. Gawande, S. Ghosh, K. Glaesemann, A. W. Gtz, J. Hammond,
       V. Helms, E. D. Hermes, K. Hirao, S. Hirata, M. Jacquelin, L. Jensen,
   B. G. Johnson, H. Jnsson, R. A. Kendall, M. Klemm, R. Kobayashi, V. Konkov,
      S. Krishnamoorthy, M. Krishnan, Z. Lin, R. D. Lins, R. J. Littlefield,
      A. J. Logsdail, K. Lopata, W. Ma, A. V. Marenich, J. Martin del Campo,
   D. Mejia-Rodriguez, J. E. Moore, J. M. Mullin, T. Nakajima, D. R. Nascimento,
    J. A. Nichols, P. J. Nichols, J. Nieplocha, A. Otero-de-la-Roza, B. Palmer,
    A. Panyala, T. Pirojsirikul, B. Peng, R. Peverati, J. Pittner, L. Pollack,
   R. M. Richard, P. Sadayappan, G. C. Schatz, W. A. Shelton, D. W. Silverstein,
   D. M. A. Smith, T. A. Soares, D. Song, M. Swart, H. L. Taylor, G. S. Thomas,
            V. Tipparaju, D. G. Truhlar, K. Tsemekhman, T. Van Voorhis,
     . Vzquez-Mayagoitia, P. Verma, O. Villa, A. Vishnu, K. D. Vogiatzis,
        D. Wang, J. H. Weare, M. J. Williamson, T. L. Windus, K. Woliski,
        A. T. Wong, Q. Wu, C. Yang, Q. Yu, M. Zacharias, Z. Zhang, Y. Zhao,
                                and R. J. Harrison
                        "NWChem: Past, present, and future
                         J. Chem. Phys. 152, 184102 (2020)
                               doi:10.1063/5.0004997

                                      AUTHORS
                                      -------
     E. Apra, E. J. Bylaska, N. Govind, K. Kowalski, M. Valiev, W. A. de Jong,
      T. P. Straatsma, H. J. J. van Dam, D. Wang, T. L. Windus, N. P. Bauman,
       A. Panyala, J. Hammond, J. Autschbach, K. Bhaskaran-Nair, J. Brabec,
    K. Lopata, S. A. Fischer, S. Krishnamoorthy, M. Jacquelin, W. Ma, M. Klemm,
       O. Villa, Y. Chen, V. Anisimov, F. Aquino, S. Hirata, M. T. Hackler,
           Eric Hermes, L. Jensen, J. E. Moore, J. C. Becca, V. Konjkov,
            D. Mejia-Rodriguez, T. Risthaus, M. Malagoli, A. Marenich,
   A. Otero-de-la-Roza, J. Mullin, P. Nichols, R. Peverati, J. Pittner, Y. Zhao,
        P.-D. Fan, A. Fonari, M. J. Williamson, R. J. Harrison, J. R. Rehr,
      M. Dupuis, D. Silverstein, D. M. A. Smith, J. Nieplocha, V. Tipparaju,
      M. Krishnan, B. E. Van Kuiken, A. Vazquez-Mayagoitia, M. Swart, Q. Wu,
   T. Van Voorhis, A. A. Auer, M. Nooijen, L. D. Crosby, E. Brown, G. Cisneros,
     G. I. Fann, H. Fruchtl, J. Garza, K. Hirao, R. A. Kendall, J. A. Nichols,
       K. Tsemekhman, K. Wolinski, J. Anchell, D. E. Bernholdt, P. Borowski,
       T. Clark, D. Clerc, H. Dachsel, M. J. O. Deegan, K. Dyall, D. Elwood,
      E. Glendening, M. Gutowski, A. C. Hess, J. Jaffe, B. G. Johnson, J. Ju,
        R. Kobayashi, R. Kutteh, Z. Lin, R. Littlefield, X. Long, B. Meng,
      T. Nakajima, S. Niu, L. Pollack, M. Rosing, K. Glaesemann, G. Sandrone,
      M. Stave, H. Taylor, G. Thomas, J. H. van Lenthe, A. T. Wong, Z. Zhang.

 Total times  cpu:     2501.5s     wall:     2433.4s
