42
Lattice="35.8055836 0.0 0.0 0.0 21.915067999999998 0.0 0.0 0.0 20.4717846" Properties=species:S:1:pos:R:3:forces:R:3 simplified=T D18=T monomer,=T D-pi-A,=T constructed=T with=T PySoftK=T energy=-93047.28616275941 free_energy=-93047.28616275941 pbc="F F F"
C        9.59905277      10.69809070       9.37267920     
C        9.01554494      11.73439272      10.03190005     
H        7.95299736      11.95259432      10.11873557     
S       10.17138673      12.80349944      10.80919537     
C       11.51452133      11.81748168      10.22553472     
C       12.87025611      12.04094866      10.44962417     
C       13.79193614      11.13597138       9.89673580     
C       13.31246065      10.02848982       9.13122949     
C       11.95955525       9.80482743       8.90717084     
C       11.03765409      10.70981522       9.46005607     
S       14.64846695       9.03881414       8.54472143     
C       15.83612094      10.11069187       9.32564379     
C       15.22464678      11.14799284       9.98398846     
C       17.84180843       8.75341773       8.53089645     
C       19.25277978       8.74952768       8.60631933     
C       19.77496592       9.80303568       9.33816628     
S       18.47519443      10.82046533       9.94519893     
C       17.24454923       9.80717654       9.20100726     
C       23.50703858       9.90152260       9.61023224     
C       22.26604447       9.35922819       9.17977533     
C       21.17064130      10.08353657       9.60250983     
S       21.67520852      11.48325254      10.56436778     
C       23.36390245      11.06549616      10.37898323     
C       24.49346347      11.76118834      10.90564827    
S       24.48979013      13.21730676      11.87705159     
C       26.23729407      13.20482064      11.96533610     
H       26.74623795      13.99092516      12.51801784     
C       26.78853484      12.15215596      11.29341804     
C       25.80432976      11.31487986      10.68032444     
C       25.99234498      10.12107852       9.89414476     
N       27.16069336       9.56527795       9.58787533     
S       26.81309459       8.21829406       8.66987662     
N       25.14995274       8.32926638       8.65197200     
C       24.84088274       9.41222249       9.35749227     
H        9.03708727       9.93610502       8.83315968     
H       13.21532328      12.89293896      11.03720941     
H       11.61538767       8.95257738       8.31946156     
H       15.77792017      11.91511716      10.52646721     
H       17.26834551       7.99777740       7.99496737     
H       19.87524030       7.99090213       8.13452496     
H       22.20021069       8.45749547       8.57445480     
H       27.85808033      11.96190911      11.22561739     